VARIABLES = X, Y, Z, VX, VY, VZ, PRESS, OBST
ZONE I= 1, J= 128, K= 128 F=POINT
44 1 1 0.000000 0.000000 0.000000 0.033333 1
44 2 1 0.000000 0.000000 0.000000 0.033333 1
44 3 1 0.000000 0.000000 0.000000 0.033333 1
44 4 1 0.000000 0.000000 0.000000 0.033333 1
44 5 1 0.000000 0.000000 0.000000 0.033333 1
44 6 1 0.000000 0.000000 0.000000 0.033333 1
44 7 1 0.000000 0.000000 0.000000 0.033333 1
44 8 1 0.000000 0.000000 0.000000 0.033333 1
44 9 1 0.000000 0.000000 0.000000 0.033333 1
44 10 1 0.000000 0.000000 0.000000 0.033333 1
44 11 1 0.000000 0.000000 0.000000 0.033333 1
44 12 1 0.000000 0.000000 0.000000 0.033333 1
44 13 1 0.000000 0.000000 0.000000 0.033333 1
44 14 1 0.000000 0.000000 0.000000 0.033333 1
44 15 1 0.000000 0.000000 0.000000 0.033333 1
44 16 1 0.000000 0.000000 0.000000 0.033333 1
44 17 1 0.000000 0.000000 0.000000 0.033333 1
44 18 1 0.000000 0.000000 0.000000 0.033333 1
44 19 1 0.000000 0.000000 0.000000 0.033333 1
44 20 1 0.000000 0.000000 0.000000 0.033333 1
44 21 1 0.000000 0.000000 0.000000 0.033333 1
44 22 1 0.000000 0.000000 0.000000 0.033333 1
44 23 1 0.000000 0.000000 0.000000 0.033333 1
44 24 1 0.000000 0.000000 0.000000 0.033333 1
44 25 1 0.000000 0.000000 0.000000 0.033333 1
44 26 1 0.000000 0.000000 0.000000 0.033333 1
44 27 1 0.000000 0.000000 0.000000 0.033333 1
44 28 1 0.000000 0.000000 0.000000 0.033333 1
44 29 1 0.000000 0.000000 0.000000 0.033333 1
44 30 1 0.000000 0.000000 0.000000 0.033333 1
44 31 1 0.000000 0.000000 0.000000 0.033333 1
44 32 1 0.000000 0.000000 0.000000 0.033333 1
44 33 1 0.000000 0.000000 0.000000 0.033333 1
44 34 1 0.000000 0.000000 0.000000 0.033333 1
44 35 1 0.000000 0.000000 0.000000 0.033333 1
44 36 1 0.000000 0.000000 0.000000 0.033333 1
44 37 1 0.000000 0.000000 0.000000 0.033333 1
44 38 1 0.000000 0.000000 0.000000 0.033333 1
44 39 1 0.000000 0.000000 0.000000 0.033333 1
44 40 1 0.000000 0.000000 0.000000 0.033333 1
44 41 1 0.000000 0.000000 0.000000 0.033333 1
44 42 1 0.000000 0.000000 0.000000 0.033333 1
44 43 1 0.000000 0.000000 0.000000 0.033333 1
44 44 1 0.000000 0.000000 0.000000 0.033333 1
44 45 1 0.000000 0.000000 0.000000 0.033333 1
44 46 1 0.000000 0.000000 0.000000 0.033333 1
44 47 1 0.000000 0.000000 0.000000 0.033333 1
44 48 1 0.000000 0.000000 0.000000 0.033333 1
44 49 1 0.000000 0.000000 0.000000 0.033333 1
44 50 1 0.000000 0.000000 0.000000 0.033333 1
44 51 1 0.000000 0.000000 0.000000 0.033333 1
44 52 1 0.000000 0.000000 0.000000 0.033333 1
44 53 1 0.000000 0.000000 0.000000 0.033333 1
44 54 1 0.000000 0.000000 0.000000 0.033333 1
44 55 1 0.000000 0.000000 0.000000 0.033333 1
44 56 1 0.000000 0.000000 0.000000 0.033333 1
44 57 1 0.000000 0.000000 0.000000 0.033333 1
44 58 1 0.000000 0.000000 0.000000 0.033333 1
44 59 1 0.000000 0.000000 0.000000 0.033333 1
44 60 1 0.000000 0.000000 0.000000 0.033333 1
44 61 1 0.000000 0.000000 0.000000 0.033333 1
44 62 1 0.000000 0.000000 0.000000 0.033333 1
44 63 1 0.000000 0.000000 0.000000 0.033333 1
44 64 1 0.000000 0.000000 0.000000 0.033333 1
44 65 1 0.000000 0.000000 0.000000 0.033333 1
44 66 1 0.000000 0.000000 0.000000 0.033333 1
44 67 1 0.000000 0.000000 0.000000 0.033333 1
44 68 1 0.000000 0.000000 0.000000 0.033333 1
44 69 1 0.000000 0.000000 0.000000 0.033333 1
44 70 1 0.000000 0.000000 0.000000 0.033333 1
44 71 1 0.000000 0.000000 0.000000 0.033333 1
44 72 1 0.000000 0.000000 0.000000 0.033333 1
44 73 1 0.000000 0.000000 0.000000 0.033333 1
44 74 1 0.000000 0.000000 0.000000 0.033333 1
44 75 1 0.000000 0.000000 0.000000 0.033333 1
44 76 1 0.000000 0.000000 0.000000 0.033333 1
44 77 1 0.000000 0.000000 0.000000 0.033333 1
44 78 1 0.000000 0.000000 0.000000 0.033333 1
44 79 1 0.000000 0.000000 0.000000 0.033333 1
44 80 1 0.000000 0.000000 0.000000 0.033333 1
44 81 1 0.000000 0.000000 0.000000 0.033333 1
44 82 1 0.000000 0.000000 0.000000 0.033333 1
44 83 1 0.000000 0.000000 0.000000 0.033333 1
44 84 1 0.000000 0.000000 0.000000 0.033333 1
44 85 1 0.000000 0.000000 0.000000 0.033333 1
44 86 1 0.000000 0.000000 0.000000 0.033333 1
44 87 1 0.000000 0.000000 0.000000 0.033333 1
44 88 1 0.000000 0.000000 0.000000 0.033333 1
44 89 1 0.000000 0.000000 0.000000 0.033333 1
44 90 1 0.000000 0.000000 0.000000 0.033333 1
44 91 1 0.000000 0.000000 0.000000 0.033333 1
44 92 1 0.000000 0.000000 0.000000 0.033333 1
44 93 1 0.000000 0.000000 0.000000 0.033333 1
44 94 1 0.000000 0.000000 0.000000 0.033333 1
44 95 1 0.000000 0.000000 0.000000 0.033333 1
44 96 1 0.000000 0.000000 0.000000 0.033333 1
44 97 1 0.000000 0.000000 0.000000 0.033333 1
44 98 1 0.000000 0.000000 0.000000 0.033333 1
44 99 1 0.000000 0.000000 0.000000 0.033333 1
44 100 1 0.000000 0.000000 0.000000 0.033333 1
44 101 1 0.000000 0.000000 0.000000 0.033333 1
44 102 1 0.000000 0.000000 0.000000 0.033333 1
44 103 1 0.000000 0.000000 0.000000 0.033333 1
44 104 1 0.000000 0.000000 0.000000 0.033333 1
44 105 1 0.000000 0.000000 0.000000 0.033333 1
44 106 1 0.000000 0.000000 0.000000 0.033333 1
44 107 1 0.000000 0.000000 0.000000 0.033333 1
44 108 1 0.000000 0.000000 0.000000 0.033333 1
44 109 1 0.000000 0.000000 0.000000 0.033333 1
44 110 1 0.000000 0.000000 0.000000 0.033333 1
44 111 1 0.000000 0.000000 0.000000 0.033333 1
44 112 1 0.000000 0.000000 0.000000 0.033333 1
44 113 1 0.000000 0.000000 0.000000 0.033333 1
44 114 1 0.000000 0.000000 0.000000 0.033333 1
44 115 1 0.000000 0.000000 0.000000 0.033333 1
44 116 1 0.000000 0.000000 0.000000 0.033333 1
44 117 1 0.000000 0.000000 0.000000 0.033333 1
44 118 1 0.000000 0.000000 0.000000 0.033333 1
44 119 1 0.000000 0.000000 0.000000 0.033333 1
44 120 1 0.000000 0.000000 0.000000 0.033333 1
44 121 1 0.000000 0.000000 0.000000 0.033333 1
44 122 1 0.000000 0.000000 0.000000 0.033333 1
44 123 1 0.000000 0.000000 0.000000 0.033333 1
44 124 1 0.000000 0.000000 0.000000 0.033333 1
44 125 1 0.000000 0.000000 0.000000 0.033333 1
44 126 1 0.000000 0.000000 0.000000 0.033333 1
44 127 1 0.000000 0.000000 0.000000 0.033333 1
44 128 1 0.000000 0.000000 0.000000 0.033333 1
44 1 2 0.000000 0.000000 0.000000 0.033333 1
44 2 2 -0.023822 0.000014 0.000016 0.033299 0
44 3 2 -0.017878 0.000012 0.000024 0.033298 0
44 4 2 -0.014880 -0.000047 0.000051 0.033297 0
44 5 2 -0.013254 -0.000099 0.000019 0.033297 0
44 6 2 -0.012400 -0.000101 0.000013 0.033298 0
44 7 2 -0.011966 -0.000089 0.000008 0.033298 0
44 8 2 -0.011753 -0.000074 0.000009 0.033298 0
44 9 2 -0.011659 -0.000057 0.000005 0.033298 0
44 10 2 -0.011621 -0.000040 0.000007 0.033299 0
44 11 2 -0.011610 -0.000029 0.000008 0.033299 0
44 12 2 -0.011606 -0.000022 0.000008 0.033299 0
44 13 2 -0.011606 -0.000016 0.000008 0.033299 0
44 14 2 -0.011606 -0.000011 0.000008 0.033299 0
44 15 2 -0.011607 -0.000009 0.000008 0.033299 0
44 16 2 -0.011605 -0.000007 0.000008 0.033299 0
44 17 2 -0.011606 -0.000005 0.000008 0.033299 0
44 18 2 -0.011605 -0.000004 0.000007 0.033299 0
44 19 2 -0.011604 -0.000003 0.000007 0.033299 0
44 20 2 -0.011603 -0.000002 0.000007 0.033299 0
44 21 2 -0.011603 -0.000001 0.000007 0.033299 0
44 22 2 -0.011602 -0.000000 0.000006 0.033299 0
44 23 2 -0.011601 -0.000000 0.000006 0.033299 0
44 24 2 -0.011601 0.000000 0.000006 0.033299 0
44 25 2 -0.011600 0.000001 0.000006 0.033299 0
44 26 2 -0.011599 0.000001 0.000005 0.033298 0
44 27 2 -0.011599 0.000001 0.000005 0.033298 0
44 28 2 -0.011598 0.000001 0.000005 0.033298 0
44 29 2 -0.011597 0.000001 0.000005 0.033298 0
44 30 2 -0.011596 0.000000 0.000005 0.033298 0
44 31 2 -0.011596 -0.000000 0.000005 0.033298 0
44 32 2 -0.011595 -0.000000 0.000004 0.033298 0
44 33 2 -0.011594 -0.000001 0.000004 0.033298 0
44 34 2 -0.011594 -0.000002 0.000004 0.033298 0
44 35 2 -0.011593 -0.000002 0.000004 0.033298 0
44 36 2 -0.011592 -0.000003 0.000004 0.033298 0
44 37 2 -0.011591 -0.000004 0.000004 0.033298 0
44 38 2 -0.011591 -0.000004 0.000004 0.033298 0
44 39 2 -0.011590 -0.000005 0.000004 0.033298 0
44 40 2 -0.011590 -0.000005 0.000004 0.033298 0
44 41 2 -0.011589 -0.000006 0.000004 0.033298 0
44 42 2 -0.011588 -0.000006 0.000005 0.033298 0
44 43 2 -0.011588 -0.000006 0.000005 0.033298 0
44 44 2 -0.011587 -0.000006 0.000005 0.033298 0
44 45 2 -0.011587 -0.000006 0.000005 0.033298 0
44 46 2 -0.011586 -0.000006 0.000005 0.033298 0
44 47 2 -0.011586 -0.000006 0.000005 0.033297 0
44 48 2 -0.011586 -0.000005 0.000005 0.033297 0
44 49 2 -0.011585 -0.000005 0.000006 0.033297 0
44 50 2 -0.011585 -0.000004 0.000006 0.033297 0
44 51 2 -0.011584 -0.000004 0.000006 0.033297 0
44 52 2 -0.011584 -0.000003 0.000006 0.033297 0
44 53 2 -0.011583 -0.000003 0.000006 0.033296 0
44 54 2 -0.011583 -0.000002 0.000006 0.033296 0
44 55 2 -0.011583 -0.000002 0.000006 0.033296 0
44 56 2 -0.011582 -0.000001 0.000006 0.033296 0
44 57 2 -0.011582 -0.000001 0.000006 0.033296 0
44 58 2 -0.011582 -0.000001 0.000006 0.033296 0
44 59 2 -0.011581 -0.000000 0.000006 0.033296 0
44 60 2 -0.011581 -0.000000 0.000006 0.033296 0
44 61 2 -0.011581 -0.000000 0.000006 0.033295 0
44 62 2 -0.011581 -0.000000 0.000006 0.033295 0
44 63 2 -0.011581 -0.000000 0.000006 0.033295 0
44 64 2 -0.011581 -0.000000 0.000006 0.033295 0
44 65 2 -0.011581 0.000000 0.000006 0.033295 0
44 66 2 -0.011581 0.000000 0.000006 0.033295 0
44 67 2 -0.011581 0.000000 0.000006 0.033295 0
44 68 2 -0.011581 0.000000 0.000006 0.033295 0
44 69 2 -0.011581 0.000000 0.000006 0.033296 0
44 70 2 -0.011581 0.000000 0.000006 0.033296 0
44 71 2 -0.011582 0.000001 0.000006 0.033296 0
44 72 2 -0.011582 0.000001 0.000006 0.033296 0
44 73 2 -0.011582 0.000001 0.000006 0.033296 0
44 74 2 -0.011583 0.000002 0.000006 0.033296 0
44 75 2 -0.011583 0.000002 0.000006 0.033296 0
44 76 2 -0.011583 0.000003 0.000006 0.033296 0
44 77 2 -0.011584 0.000003 0.000006 0.033297 0
44 78 2 -0.011584 0.000004 0.000006 0.033297 0
44 79 2 -0.011585 0.000004 0.000006 0.033297 0
44 80 2 -0.011585 0.000005 0.000006 0.033297 0
44 81 2 -0.011586 0.000005 0.000005 0.033297 0
44 82 2 -0.011586 0.000006 0.000005 0.033297 0
44 83 2 -0.011586 0.000006 0.000005 0.033298 0
44 84 2 -0.011587 0.000006 0.000005 0.033298 0
44 85 2 -0.011587 0.000006 0.000005 0.033298 0
44 86 2 -0.011588 0.000006 0.000005 0.033298 0
44 87 2 -0.011588 0.000006 0.000005 0.033298 0
44 88 2 -0.011589 0.000006 0.000004 0.033298 0
44 89 2 -0.011590 0.000005 0.000004 0.033298 0
44 90 2 -0.011590 0.000005 0.000004 0.033298 0
44 91 2 -0.011591 0.000004 0.000004 0.033298 0
44 92 2 -0.011591 0.000004 0.000004 0.033298 0
44 93 2 -0.011592 0.000003 0.000004 0.033298 0
44 94 2 -0.011593 0.000002 0.000004 0.033298 0
44 95 2 -0.011594 0.000002 0.000004 0.033298 0
44 96 2 -0.011594 0.000001 0.000004 0.033298 0
44 97 2 -0.011595 0.000000 0.000004 0.033298 0
44 98 2 -0.011596 0.000000 0.000005 0.033298 0
44 99 2 -0.011596 -0.000000 0.000005 0.033298 0
44 100 2 -0.011597 -0.000001 0.000005 0.033298 0
44 101 2 -0.011598 -0.000001 0.000005 0.033298 0
44 102 2 -0.011599 -0.000001 0.000005 0.033298 0
44 103 2 -0.011599 -0.000001 0.000005 0.033298 0
44 104 2 -0.011600 -0.000001 0.000006 0.033299 0
44 105 2 -0.011601 -0.000000 0.000006 0.033299 0
44 106 2 -0.011601 0.000000 0.000006 0.033299 0
44 107 2 -0.011602 0.000000 0.000006 0.033299 0
44 108 2 -0.011603 0.000001 0.000007 0.033299 0
44 109 2 -0.011603 0.000002 0.000007 0.033299 0
44 110 2 -0.011604 0.000003 0.000007 0.033299 0
44 111 2 -0.011605 0.000004 0.000007 0.033299 0
44 112 2 -0.011606 0.000005 0.000008 0.033299 0
44 113 2 -0.011605 0.000007 0.000008 0.033299 0
44 114 2 -0.011607 0.000009 0.000008 0.033299 0
44 115 2 -0.011606 0.000011 0.000008 0.033299 0
44 116 2 -0.011606 0.000016 0.000008 0.033299 0
44 117 2 -0.011606 0.000022 0.000008 0.033299 0
44 118 2 -0.011610 0.000029 0.000008 0.033299 0
44 119 2 -0.011621 0.000040 0.000007 0.033299 0
44 120 2 -0.011659 0.000057 0.000005 0.033298 0
44 121 2 -0.011753 0.000074 0.000009 0.033298 0
44 122 2 -0.011966 0.000089 0.000008 0.033298 0
44 123 2 -0.012400 0.000101 0.000013 0.033298 0
44 124 2 -0.013254 0.000099 0.000019 0.033297 0
44 125 2 -0.014880 0.000047 0.000051 0.033297 0
44 126 2 -0.017878 -0.000012 0.000024 0.033298 0
44 127 2 -0.023822 -0.000014 0.000016 0.033299 0
44 128 2 0.000000 0.000000 0.000000 0.033333 1
44 1 3 0.000000 0.000000 0.000000 0.033333 1
44 2 3 -0.018451 0.000014 0.000033 0.033298 0
44 3 3 -0.003801 0.000016 0.000068 0.033298 0
44 4 3 0.004287 -0.000019 0.000135 0.033298 0
44 5 3 0.008663 -0.000095 0.000080 0.033298 0
44 6 3 0.011010 -0.000153 0.000018 0.033298 0
44 7 3 0.012211 -0.000158 -0.000014 0.033298 0
44 8 3 0.012802 -0.000137 -0.000021 0.033298 0
44 9 3 0.013061 -0.000110 -0.000026 0.033298 0
44 10 3 0.013168 -0.000085 -0.000020 0.033299 0
44 11 3 0.013200 -0.000064 -0.000014 0.033299 0
44 12 3 0.013211 -0.000048 -0.000009 0.033299 0
44 13 3 0.013210 -0.000036 -0.000007 0.033299 0
44 14 3 0.013210 -0.000028 -0.000004 0.033299 0
44 15 3 0.013208 -0.000022 -0.000002 0.033299 0
44 16 3 0.013208 -0.000017 -0.000002 0.033299 0
44 17 3 0.013208 -0.000014 -0.000001 0.033299 0
44 18 3 0.013209 -0.000011 -0.000001 0.033299 0
44 19 3 0.013209 -0.000008 -0.000001 0.033299 0
44 20 3 0.013210 -0.000006 -0.000001 0.033299 0
44 21 3 0.013210 -0.000005 -0.000000 0.033299 0
44 22 3 0.013211 -0.000003 -0.000000 0.033299 0
44 23 3 0.013212 -0.000002 0.000000 0.033299 0
44 24 3 0.013213 -0.000001 0.000000 0.033299 0
44 25 3 0.013213 -0.000000 0.000000 0.033299 0
44 26 3 0.013214 0.000001 0.000000 0.033298 0
44 27 3 0.013215 0.000001 0.000001 0.033298 0
44 28 3 0.013216 0.000001 0.000001 0.033298 0
44 29 3 0.013217 0.000001 0.000001 0.033298 0
44 30 3 0.013218 0.000001 0.000001 0.033298 0
44 31 3 0.013219 -0.000000 0.000001 0.033298 0
44 32 3 0.013220 -0.000001 0.000001 0.033298 0
44 33 3 0.013221 -0.000002 0.000002 0.033298 0
44 34 3 0.013222 -0.000003 0.000002 0.033298 0
44 35 3 0.013223 -0.000004 0.000002 0.033298 0
44 36 3 0.013224 -0.000005 0.000002 0.033298 0
44 37 3 0.013226 -0.000007 0.000003 0.033298 0
44 38 3 0.013227 -0.000008 0.000003 0.033298 0
44 39 3 0.013228 -0.000009 0.000004 0.033298 0
44 40 3 0.013229 -0.000010 0.000004 0.033298 0
44 41 3 0.013230 -0.000011 0.000004 0.033298 0
44 42 3 0.013231 -0.000012 0.000005 0.033298 0
44 43 3 0.013231 -0.000013 0.000005 0.033298 0
44 44 3 0.013232 -0.000013 0.000006 0.033298 0
44 45 3 0.013233 -0.000013 0.000006 0.033298 0
44 46 3 0.013234 -0.000013 0.000007 0.033298 0
44 47 3 0.013235 -0.000013 0.000007 0.033298 0
44 48 3 0.013235 -0.000013 0.000008 0.033297 0
44 49 3 0.013236 -0.000012 0.000008 0.033297 0
44 50 3 0.013237 -0.000011 0.000009 0.033297 0
44 51 3 0.013238 -0.000010 0.000009 0.033297 0
44 52 3 0.013239 -0.000009 0.000009 0.033297 0
44 53 3 0.013239 -0.000008 0.000010 0.033297 0
44 54 3 0.013240 -0.000007 0.000010 0.033296 0
44 55 3 0.013241 -0.000006 0.000010 0.033296 0
44 56 3 0.013242 -0.000005 0.000011 0.033296 0
44 57 3 0.013242 -0.000004 0.000011 0.033296 0
44 58 3 0.013243 -0.000004 0.000011 0.033296 0
44 59 3 0.013243 -0.000003 0.000011 0.033296 0
44 60 3 0.013244 -0.000002 0.000011 0.033296 0
44 61 3 0.013244 -0.000002 0.000011 0.033296 0
44 62 3 0.013245 -0.000001 0.000011 0.033296 0
44 63 3 0.013245 -0.000001 0.000011 0.033296 0
44 64 3 0.013245 -0.000000 0.000011 0.033296 0
44 65 3 0.013245 0.000000 0.000011 0.033296 0
44 66 3 0.013245 0.000001 0.000011 0.033296 0
44 67 3 0.013245 0.000001 0.000011 0.033296 0
44 68 3 0.013244 0.000002 0.000011 0.033296 0
44 69 3 0.013244 0.000002 0.000011 0.033296 0
44 70 3 0.013243 0.000003 0.000011 0.033296 0
44 71 3 0.013243 0.000004 0.000011 0.033296 0
44 72 3 0.013242 0.000004 0.000011 0.033296 0
44 73 3 0.013242 0.000005 0.000011 0.033296 0
44 74 3 0.013241 0.000006 0.000010 0.033296 0
44 75 3 0.013240 0.000007 0.000010 0.033296 0
44 76 3 0.013239 0.000008 0.000010 0.033297 0
44 77 3 0.013239 0.000009 0.000009 0.033297 0
44 78 3 0.013238 0.000010 0.000009 0.033297 0
44 79 3 0.013237 0.000011 0.000009 0.033297 0
44 80 3 0.013236 0.000012 0.000008 0.033297 0
44 81 3 0.013235 0.000013 0.000008 0.033297 0
44 82 3 0.013235 0.000013 0.000007 0.033298 0
44 83 3 0.013234 0.000013 0.000007 0.033298 0
44 84 3 0.013233 0.000013 0.000006 0.033298 0
44 85 3 0.013232 0.000013 0.000006 0.033298 0
44 86 3 0.013231 0.000013 0.000005 0.033298 0
44 87 3 0.013231 0.000012 0.000005 0.033298 0
44 88 3 0.013230 0.000011 0.000004 0.033298 0
44 89 3 0.013229 0.000010 0.000004 0.033298 0
44 90 3 0.013228 0.000009 0.000004 0.033298 0
44 91 3 0.013227 0.000008 0.000003 0.033298 0
44 92 3 0.013226 0.000007 0.000003 0.033298 0
44 93 3 0.013224 0.000005 0.000002 0.033298 0
44 94 3 0.013223 0.000004 0.000002 0.033298 0
44 95 3 0.013222 0.000003 0.000002 0.033298 0
44 96 3 0.013221 0.000002 0.000002 0.033298 0
44 97 3 0.013220 0.000001 0.000001 0.033298 0
44 98 3 0.013219 0.000000 0.000001 0.033298 0
44 99 3 0.013218 -0.000001 0.000001 0.033298 0
44 100 3 0.013217 -0.000001 0.000001 0.033298 0
44 101 3 0.013216 -0.000001 0.000001 0.033298 0
44 102 3 0.013215 -0.000001 0.000001 0.033298 0
44 103 3 0.013214 -0.000001 0.000000 0.033298 0
44 104 3 0.013213 0.000000 0.000000 0.033299 0
44 105 3 0.013213 0.000001 0.000000 0.033299 0
44 106 3 0.013212 0.000002 0.000000 0.033299 0
44 107 3 0.013211 0.000003 -0.000000 0.033299 0
44 108 3 0.013210 0.000005 -0.000000 0.033299 0
44 109 3 0.013210 0.000006 -0.000001 0.033299 0
44 110 3 0.013209 0.000008 -0.000001 0.033299 0
44 111 3 0.013209 0.000011 -0.000001 0.033299 0
44 112 3 0.013208 0.000014 -0.000001 0.033299 0
44 113 3 0.013208 0.000017 -0.000002 0.033299 0
44 114 3 0.013208 0.000022 -0.000002 0.033299 0
44 115 3 0.013210 0.000028 -0.000004 0.033299 0
44 116 3 0.013210 0.000036 -0.000007 0.033299 0
44 117 3 0.013211 0.000048 -0.000009 0.033299 0
44 118 3 0.013200 0.000064 -0.000014 0.033299 0
44 119 3 0.013168 0.000085 -0.000020 0.033299 0
44 120 3 0.013061 0.000110 -0.000026 0.033298 0
44 121 3 0.012802 0.000137 -0.000021 0.033298 0
44 122 3 0.012211 0.000158 -0.000014 0.033298 0
44 123 3 0.011010 0.000153 0.000018 0.033298 0
44 124 3 0.008663 0.000095 0.000080 0.033298 0
44 125 3 0.004287 0.000019 0.000135 0.033298 0
44 126 3 -0.003801 -0.000016 0.000068 0.033298 0
44 127 3 -0.018451 -0.000014 0.000033 0.033298 0
44 128 3 0.000000 0.000000 0.000000 0.033333 1
44 1 4 0.000000 0.000000 0.000000 0.033333 1
44 2 4 -0.015718 0.000043 0.000001 0.033297 0
44 3 4 0.003977 0.000087 0.000082 0.033297 0
44 4 4 0.015761 0.000074 0.000169 0.033298 0
44 5 4 0.022321 0.000022 0.000142 0.033298 0
44 6 4 0.025872 -0.000036 0.000024 0.033298 0
44 7 4 0.027715 -0.000075 -0.000045 0.033298 0
44 8 4 0.028625 -0.000086 -0.000079 0.033298 0
44 9 4 0.029033 -0.000083 -0.000087 0.033298 0
44 10 4 0.029203 -0.000074 -0.000085 0.033298 0
44 11 4 0.029260 -0.000062 -0.000075 0.033298 0
44 12 4 0.029279 -0.000051 -0.000067 0.033298 0
44 13 4 0.029280 -0.000042 -0.000060 0.033298 0
44 14 4 0.029280 -0.000035 -0.000056 0.033299 0
44 15 4 0.029278 -0.000029 -0.000053 0.033299 0
44 16 4 0.029278 -0.000024 -0.000051 0.033299 0
44 17 4 0.029277 -0.000020 -0.000049 0.033299 0
44 18 4 0.029278 -0.000016 -0.000049 0.033299 0
44 19 4 0.029278 -0.000013 -0.000048 0.033299 0
44 20 4 0.029279 -0.000010 -0.000047 0.033299 0
44 21 4 0.029279 -0.000008 -0.000046 0.033298 0
44 22 4 0.029280 -0.000006 -0.000046 0.033298 0
44 23 4 0.029281 -0.000004 -0.000045 0.033298 0
44 24 4 0.029282 -0.000003 -0.000044 0.033298 0
44 25 4 0.029282 -0.000001 -0.000044 0.033298 0
44 26 4 0.029283 -0.000000 -0.000043 0.033298 0
44 27 4 0.029284 0.000000 -0.000042 0.033298 0
44 28 4 0.029285 0.000001 -0.000042 0.033298 0
44 29 4 0.029286 0.000001 -0.000041 0.033298 0
44 30 4 0.029287 0.000001 -0.000040 0.033298 0
44 31 4 0.029288 0.000001 -0.000040 0.033298 0
44 32 4 0.029289 0.000000 -0.000039 0.033298 0
44 33 4 0.029290 -0.000000 -0.000038 0.033298 0
44 34 4 0.029292 -0.000001 -0.000038 0.033298 0
44 35 4 0.029293 -0.000002 -0.000037 0.033298 0
44 36 4 0.029294 -0.000004 -0.000037 0.033298 0
44 37 4 0.029295 -0.000005 -0.000036 0.033298 0
44 38 4 0.029296 -0.000006 -0.000035 0.033298 0
44 39 4 0.029297 -0.000007 -0.000034 0.033298 0
44 40 4 0.029299 -0.000008 -0.000034 0.033298 0
44 41 4 0.029300 -0.000009 -0.000033 0.033298 0
44 42 4 0.029301 -0.000010 -0.000032 0.033298 0
44 43 4 0.029302 -0.000011 -0.000031 0.033298 0
44 44 4 0.029303 -0.000012 -0.000030 0.033298 0
44 45 4 0.029304 -0.000012 -0.000030 0.033298 0
44 46 4 0.029305 -0.000012 -0.000029 0.033298 0
44 47 4 0.029306 -0.000012 -0.000028 0.033297 0
44 48 4 0.029307 -0.000012 -0.000027 0.033297 0
44 49 4 0.029308 -0.000011 -0.000027 0.033297 0
44 50 4 0.029309 -0.000011 -0.000026 0.033297 0
44 51 4 0.029309 -0.000010 -0.000026 0.033297 0
44 52 4 0.029310 -0.000010 -0.000025 0.033297 0
44 53 4 0.029311 -0.000009 -0.000025 0.033297 0
44 54 4 0.029312 -0.000008 -0.000024 0.033296 0
44 55 4 0.029313 -0.000007 -0.000024 0.033296 0
44 56 4 0.029314 -0.000006 -0.000023 0.033296 0
44 57 4 0.029315 -0.000005 -0.000023 0.033296 0
44 58 4 0.029315 -0.000004 -0.000023 0.033296 0
44 59 4 0.029316 -0.000004 -0.000023 0.033296 0
44 60 4 0.029316 -0.000003 -0.000023 0.033296 0
44 61 4 0.029317 -0.000002 -0.000022 0.033296 0
44 62 4 0.029317 -0.000001 -0.000022 0.033296 0
44 63 4 0.029317 -0.000001 -0.000022 0.033296 0
44 64 4 0.029317 -0.000000 -0.000022 0.033296 0
44 65 4 0.029317 0.000000 -0.000022 0.033296 0
44 66 4 0.029317 0.000001 -0.000022 0.033296 0
44 67 4 0.029317 0.000001 -0.000022 0.033296 0
44 68 4 0.029317 0.000002 -0.000022 0.033296 0
44 69 4 0.029316 0.000003 -0.000023 0.033296 0
44 70 4 0.029316 0.000004 -0.000023 0.033296 0
44 71 4 0.029315 0.000004 -0.000023 0.033296 0
44 72 4 0.029315 0.000005 -0.000023 0.033296 0
44 73 4 0.029314 0.000006 -0.000023 0.033296 0
44 74 4 0.029313 0.000007 -0.000024 0.033296 0
44 75 4 0.029312 0.000008 -0.000024 0.033296 0
44 76 4 0.029311 0.000009 -0.000025 0.033297 0
44 77 4 0.029310 0.000010 -0.000025 0.033297 0
44 78 4 0.029309 0.000010 -0.000026 0.033297 0
44 79 4 0.029309 0.000011 -0.000026 0.033297 0
44 80 4 0.029308 0.000011 -0.000027 0.033297 0
44 81 4 0.029307 0.000012 -0.000027 0.033297 0
44 82 4 0.029306 0.000012 -0.000028 0.033297 0
44 83 4 0.029305 0.000012 -0.000029 0.033298 0
44 84 4 0.029304 0.000012 -0.000030 0.033298 0
44 85 4 0.029303 0.000012 -0.000030 0.033298 0
44 86 4 0.029302 0.000011 -0.000031 0.033298 0
44 87 4 0.029301 0.000010 -0.000032 0.033298 0
44 88 4 0.029300 0.000009 -0.000033 0.033298 0
44 89 4 0.029299 0.000008 -0.000034 0.033298 0
44 90 4 0.029297 0.000007 -0.000034 0.033298 0
44 91 4 0.029296 0.000006 -0.000035 0.033298 0
44 92 4 0.029295 0.000005 -0.000036 0.033298 0
44 93 4 0.029294 0.000004 -0.000037 0.033298 0
44 94 4 0.029293 0.000002 -0.000037 0.033298 0
44 95 4 0.029292 0.000001 -0.000038 0.033298 0
44 96 4 0.029290 0.000000 -0.000038 0.033298 0
44 97 4 0.029289 -0.000000 -0.000039 0.033298 0
44 98 4 0.029288 -0.000001 -0.000040 0.033298 0
44 99 4 0.029287 -0.000001 -0.000040 0.033298 0
44 100 4 0.029286 -0.000001 -0.000041 0.033298 0
44 101 4 0.029285 -0.000001 -0.000042 0.033298 0
44 102 4 0.029284 -0.000000 -0.000042 0.033298 0
44 103 4 0.029283 0.000000 -0.000043 0.033298 0
44 104 4 0.029282 0.000001 -0.000044 0.033298 0
44 105 4 0.029282 0.000003 -0.000044 0.033298 0
44 106 4 0.029281 0.000004 -0.000045 0.033298 0
44 107 4 0.029280 0.000006 -0.000046 0.033298 0
44 108 4 0.029279 0.000008 -0.000046 0.033298 0
44 109 4 0.029279 0.000010 -0.000047 0.033299 0
44 110 4 0.029278 0.000013 -0.000048 0.033299 0
44 111 4 0.029278 0.000016 -0.000049 0.033299 0
44 112 4 0.029277 0.000020 -0.000049 0.033299 0
44 113 4 0.029278 0.000024 -0.000051 0.033299 0
44 114 4 0.029278 0.000029 -0.000053 0.033299 0
44 115 4 0.029280 0.000035 -0.000056 0.033299 0
44 116 4 0.029280 0.000042 -0.000060 0.033298 0
44 117 4 0.029279 0.000051 -0.000067 0.033298 0
44 118 4 0.029260 0.000062 -0.000075 0.033298 0
44 119 4 0.029203 0.000074 -0.000085 0.033298 0
44 120 4 0.029033 0.000083 -0.000087 0.033298 0
44 121 4 0.028625 0.000086 -0.000079 0.033298 0
44 122 4 0.027715 0.000075 -0.000045 0.033298 0
44 123 4 0.025872 0.000036 0.000024 0.033298 0
44 124 4 0.022321 -0.000022 0.000142 0.033298 0
44 125 4 0.015761 -0.000074 0.000169 0.033298 0
44 126 4 0.003977 -0.000087 0.000082 0.033297 0
44 127 4 -0.015718 -0.000043 0.000001 0.033297 0
44 128 4 0.000000 0.000000 0.000000 0.033333 1
44 1 5 0.000000 0.000000 0.000000 0.033333 1
44 2 5 -0.014227 0.000013 -0.000028 0.033296 0
44 3 5 0.008228 0.000042 0.000043 0.033296 0
44 4 5 0.022187 0.000082 0.000138 0.033297 0
44 5 5 0.030232 0.000084 0.000133 0.033297 0
44 6 5 0.034645 0.000048 0.000011 0.033298 0
44 7 5 0.036949 0.000001 -0.000084 0.033298 0
44 8 5 0.038093 -0.000030 -0.000150 0.033298 0
44 9 5 0.038613 -0.000045 -0.000170 0.033298 0
44 10 5 0.038835 -0.000051 -0.000177 0.033298 0
44 11 5 0.038914 -0.000051 -0.000171 0.033298 0
44 12 5 0.038942 -0.000047 -0.000164 0.033298 0
44 13 5 0.038947 -0.000042 -0.000156 0.033298 0
44 14 5 0.038950 -0.000036 -0.000151 0.033298 0
44 15 5 0.038949 -0.000031 -0.000147 0.033298 0
44 16 5 0.038950 -0.000026 -0.000145 0.033298 0
44 17 5 0.038950 -0.000022 -0.000142 0.033298 0
44 18 5 0.038951 -0.000018 -0.000141 0.033298 0
44 19 5 0.038951 -0.000015 -0.000139 0.033298 0
44 20 5 0.038953 -0.000012 -0.000138 0.033298 0
44 21 5 0.038954 -0.000009 -0.000137 0.033298 0
44 22 5 0.038955 -0.000007 -0.000136 0.033298 0
44 23 5 0.038956 -0.000005 -0.000134 0.033298 0
44 24 5 0.038958 -0.000003 -0.000133 0.033298 0
44 25 5 0.038959 -0.000001 -0.000132 0.033298 0
44 26 5 0.038961 -0.000000 -0.000131 0.033298 0
44 27 5 0.038962 0.000001 -0.000130 0.033298 0
44 28 5 0.038963 0.000002 -0.000129 0.033298 0
44 29 5 0.038965 0.000002 -0.000128 0.033298 0
44 30 5 0.038966 0.000002 -0.000127 0.033298 0
44 31 5 0.038968 0.000002 -0.000125 0.033298 0
44 32 5 0.038969 0.000002 -0.000124 0.033298 0
44 33 5 0.038971 0.000001 -0.000123 0.033298 0
44 34 5 0.038973 0.000000 -0.000122 0.033298 0
44 35 5 0.038974 -0.000000 -0.000121 0.033298 0
44 36 5 0.038976 -0.000001 -0.000120 0.033298 0
44 37 5 0.038977 -0.000003 -0.000119 0.033298 0
44 38 5 0.038979 -0.000004 -0.000118 0.033298 0
44 39 5 0.038980 -0.000005 -0.000117 0.033298 0
44 40 5 0.038982 -0.000006 -0.000116 0.033298 0
44 41 5 0.038983 -0.000007 -0.000115 0.033298 0
44 42 5 0.038985 -0.000007 -0.000114 0.033298 0
44 43 5 0.038986 -0.000008 -0.000112 0.033297 0
44 44 5 0.038987 -0.000009 -0.000111 0.033297 0
44 45 5 0.038988 -0.000009 -0.000110 0.033297 0
44 46 5 0.038990 -0.000009 -0.000109 0.033297 0
44 47 5 0.038991 -0.000009 -0.000108 0.033297 0
44 48 5 0.038992 -0.000009 -0.000107 0.033297 0
44 49 5 0.038993 -0.000009 -0.000107 0.033297 0
44 50 5 0.038995 -0.000008 -0.000106 0.033297 0
44 51 5 0.038996 -0.000008 -0.000105 0.033296 0
44 52 5 0.038997 -0.000007 -0.000104 0.033296 0
44 53 5 0.038998 -0.000006 -0.000104 0.033296 0
44 54 5 0.038999 -0.000006 -0.000103 0.033296 0
44 55 5 0.039000 -0.000005 -0.000103 0.033296 0
44 56 5 0.039001 -0.000004 -0.000102 0.033296 0
44 57 5 0.039002 -0.000004 -0.000102 0.033296 0
44 58 5 0.039003 -0.000003 -0.000101 0.033295 0
44 59 5 0.039003 -0.000002 -0.000101 0.033295 0
44 60 5 0.039004 -0.000002 -0.000101 0.033295 0
44 61 5 0.039004 -0.000001 -0.000101 0.033295 0
44 62 5 0.039005 -0.000001 -0.000101 0.033295 0
44 63 5 0.039005 -0.000001 -0.000100 0.033295 0
44 64 5 0.039005 -0.000000 -0.000100 0.033295 0
44 65 5 0.039005 0.000000 -0.000100 0.033295 0
44 66 5 0.039005 0.000001 -0.000100 0.033295 0
44 67 5 0.039005 0.000001 -0.000101 0.033295 0
44 68 5 0.039004 0.000001 -0.000101 0.033295 0
44 69 5 0.039004 0.000002 -0.000101 0.033295 0
44 70 5 0.039003 0.000002 -0.000101 0.033295 0
44 71 5 0.039003 0.000003 -0.000101 0.033295 0
44 72 5 0.039002 0.000004 -0.000102 0.033296 0
44 73 5 0.039001 0.000004 -0.000102 0.033296 0
44 74 5 0.039000 0.000005 -0.000103 0.033296 0
44 75 5 0.038999 0.000006 -0.000103 0.033296 0
44 76 5 0.038998 0.000006 -0.000104 0.033296 0
44 77 5 0.038997 0.000007 -0.000104 0.033296 0
44 78 5 0.038996 0.000008 -0.000105 0.033296 0
44 79 5 0.038995 0.000008 -0.000106 0.033297 0
44 80 5 0.038993 0.000009 -0.000107 0.033297 0
44 81 5 0.038992 0.000009 -0.000107 0.033297 0
44 82 5 0.038991 0.000009 -0.000108 0.033297 0
44 83 5 0.038990 0.000009 -0.000109 0.033297 0
44 84 5 0.038988 0.000009 -0.000110 0.033297 0
44 85 5 0.038987 0.000009 -0.000111 0.033297 0
44 86 5 0.038986 0.000008 -0.000112 0.033297 0
44 87 5 0.038985 0.000007 -0.000114 0.033298 0
44 88 5 0.038983 0.000007 -0.000115 0.033298 0
44 89 5 0.038982 0.000006 -0.000116 0.033298 0
44 90 5 0.038980 0.000005 -0.000117 0.033298 0
44 91 5 0.038979 0.000004 -0.000118 0.033298 0
44 92 5 0.038977 0.000003 -0.000119 0.033298 0
44 93 5 0.038976 0.000001 -0.000120 0.033298 0
44 94 5 0.038974 0.000000 -0.000121 0.033298 0
44 95 5 0.038973 -0.000000 -0.000122 0.033298 0
44 96 5 0.038971 -0.000001 -0.000123 0.033298 0
44 97 5 0.038969 -0.000002 -0.000124 0.033298 0
44 98 5 0.038968 -0.000002 -0.000125 0.033298 0
44 99 5 0.038966 -0.000002 -0.000127 0.033298 0
44 100 5 0.038965 -0.000002 -0.000128 0.033298 0
44 101 5 0.038963 -0.000002 -0.000129 0.033298 0
44 102 5 0.038962 -0.000001 -0.000130 0.033298 0
44 103 5 0.038961 0.000000 -0.000131 0.033298 0
44 104 5 0.038959 0.000001 -0.000132 0.033298 0
44 105 5 0.038958 0.000003 -0.000133 0.033298 0
44 106 5 0.038956 0.000005 -0.000134 0.033298 0
44 107 5 0.038955 0.000007 -0.000136 0.033298 0
44 108 5 0.038954 0.000009 -0.000137 0.033298 0
44 109 5 0.038953 0.000012 -0.000138 0.033298 0
44 110 5 0.038951 0.000015 -0.000139 0.033298 0
44 111 5 0.038951 0.000018 -0.000141 0.033298 0
44 112 5 0.038950 0.000022 -0.000142 0.033298 0
44 113 5 0.038950 0.000026 -0.000145 0.033298 0
44 114 5 0.038949 0.000031 -0.000147 0.033298 0
44 115 5 0.038950 0.000036 -0.000151 0.033298 0
44 116 5 0.038947 0.000042 -0.000156 0.033298 0
44 117 5 0.038942 0.000047 -0.000164 0.033298 0
44 118 5 0.038914 0.000051 -0.000171 0.033298 0
44 119 5 0.038835 0.000051 -0.000177 0.033298 0
44 120 5 0.038613 0.000045 -0.000170 0.033298 0
44 121 5 0.038093 0.000030 -0.000150 0.033298 0
44 122 5 0.036949 -0.000001 -0.000084 0.033298 0