VARIABLES = X, Y, Z, VX, VY, VZ, PRESS, OBST
ZONE I= 128, J= 128, K= 128 F=POINT
1 1 32 0.000000 0.000000 0.000000 0.033333 1
2 1 32 0.000000 0.000000 0.000000 0.033333 1
3 1 32 0.000000 0.000000 0.000000 0.033333 1
4 1 32 0.000000 0.000000 0.000000 0.033333 1
5 1 32 0.000000 0.000000 0.000000 0.033333 1
6 1 32 0.000000 0.000000 0.000000 0.033333 1
7 1 32 0.000000 0.000000 0.000000 0.033333 1
8 1 32 0.000000 0.000000 0.000000 0.033333 1
9 1 32 0.000000 0.000000 0.000000 0.033333 1
10 1 32 0.000000 0.000000 0.000000 0.033333 1
11 1 32 0.000000 0.000000 0.000000 0.033333 1
12 1 32 0.000000 0.000000 0.000000 0.033333 1
13 1 32 0.000000 0.000000 0.000000 0.033333 1
14 1 32 0.000000 0.000000 0.000000 0.033333 1
15 1 32 0.000000 0.000000 0.000000 0.033333 1
16 1 32 0.000000 0.000000 0.000000 0.033333 1
17 1 32 0.000000 0.000000 0.000000 0.033333 1
18 1 32 0.000000 0.000000 0.000000 0.033333 1
19 1 32 0.000000 0.000000 0.000000 0.033333 1
20 1 32 0.000000 0.000000 0.000000 0.033333 1
21 1 32 0.000000 0.000000 0.000000 0.033333 1
22 1 32 0.000000 0.000000 0.000000 0.033333 1
23 1 32 0.000000 0.000000 0.000000 0.033333 1
24 1 32 0.000000 0.000000 0.000000 0.033333 1
25 1 32 0.000000 0.000000 0.000000 0.033333 1
26 1 32 0.000000 0.000000 0.000000 0.033333 1
27 1 32 0.000000 0.000000 0.000000 0.033333 1
28 1 32 0.000000 0.000000 0.000000 0.033333 1
29 1 32 0.000000 0.000000 0.000000 0.033333 1
30 1 32 0.000000 0.000000 0.000000 0.033333 1
31 1 32 0.000000 0.000000 0.000000 0.033333 1
32 1 32 0.000000 0.000000 0.000000 0.033333 1
33 1 32 0.000000 0.000000 0.000000 0.033333 1
34 1 32 0.000000 0.000000 0.000000 0.033333 1
35 1 32 0.000000 0.000000 0.000000 0.033333 1
36 1 32 0.000000 0.000000 0.000000 0.033333 1
37 1 32 0.000000 0.000000 0.000000 0.033333 1
38 1 32 0.000000 0.000000 0.000000 0.033333 1
39 1 32 0.000000 0.000000 0.000000 0.033333 1
40 1 32 0.000000 0.000000 0.000000 0.033333 1
41 1 32 0.000000 0.000000 0.000000 0.033333 1
42 1 32 0.000000 0.000000 0.000000 0.033333 1
43 1 32 0.000000 0.000000 0.000000 0.033333 1
44 1 32 0.000000 0.000000 0.000000 0.033333 1
45 1 32 0.000000 0.000000 0.000000 0.033333 1
46 1 32 0.000000 0.000000 0.000000 0.033333 1
47 1 32 0.000000 0.000000 0.000000 0.033333 1
48 1 32 0.000000 0.000000 0.000000 0.033333 1
49 1 32 0.000000 0.000000 0.000000 0.033333 1
50 1 32 0.000000 0.000000 0.000000 0.033333 1
51 1 32 0.000000 0.000000 0.000000 0.033333 1
52 1 32 0.000000 0.000000 0.000000 0.033333 1
53 1 32 0.000000 0.000000 0.000000 0.033333 1
54 1 32 0.000000 0.000000 0.000000 0.033333 1
55 1 32 0.000000 0.000000 0.000000 0.033333 1
56 1 32 0.000000 0.000000 0.000000 0.033333 1
57 1 32 0.000000 0.000000 0.000000 0.033333 1
58 1 32 0.000000 0.000000 0.000000 0.033333 1
59 1 32 0.000000 0.000000 0.000000 0.033333 1
60 1 32 0.000000 0.000000 0.000000 0.033333 1
61 1 32 0.000000 0.000000 0.000000 0.033333 1
62 1 32 0.000000 0.000000 0.000000 0.033333 1
63 1 32 0.000000 0.000000 0.000000 0.033333 1
64 1 32 0.000000 0.000000 0.000000 0.033333 1
65 1 32 0.000000 0.000000 0.000000 0.033333 1
66 1 32 0.000000 0.000000 0.000000 0.033333 1
67 1 32 0.000000 0.000000 0.000000 0.033333 1
68 1 32 0.000000 0.000000 0.000000 0.033333 1
69 1 32 0.000000 0.000000 0.000000 0.033333 1
70 1 32 0.000000 0.000000 0.000000 0.033333 1
71 1 32 0.000000 0.000000 0.000000 0.033333 1
72 1 32 0.000000 0.000000 0.000000 0.033333 1
73 1 32 0.000000 0.000000 0.000000 0.033333 1
74 1 32 0.000000 0.000000 0.000000 0.033333 1
75 1 32 0.000000 0.000000 0.000000 0.033333 1
76 1 32 0.000000 0.000000 0.000000 0.033333 1
77 1 32 0.000000 0.000000 0.000000 0.033333 1
78 1 32 0.000000 0.000000 0.000000 0.033333 1
79 1 32 0.000000 0.000000 0.000000 0.033333 1
80 1 32 0.000000 0.000000 0.000000 0.033333 1
81 1 32 0.000000 0.000000 0.000000 0.033333 1
82 1 32 0.000000 0.000000 0.000000 0.033333 1
83 1 32 0.000000 0.000000 0.000000 0.033333 1
84 1 32 0.000000 0.000000 0.000000 0.033333 1
85 1 32 0.000000 0.000000 0.000000 0.033333 1
86 1 32 0.000000 0.000000 0.000000 0.033333 1
87 1 32 0.000000 0.000000 0.000000 0.033333 1
88 1 32 0.000000 0.000000 0.000000 0.033333 1
89 1 32 0.000000 0.000000 0.000000 0.033333 1
90 1 32 0.000000 0.000000 0.000000 0.033333 1
91 1 32 0.000000 0.000000 0.000000 0.033333 1
92 1 32 0.000000 0.000000 0.000000 0.033333 1
93 1 32 0.000000 0.000000 0.000000 0.033333 1
94 1 32 0.000000 0.000000 0.000000 0.033333 1
95 1 32 0.000000 0.000000 0.000000 0.033333 1
96 1 32 0.000000 0.000000 0.000000 0.033333 1
97 1 32 0.000000 0.000000 0.000000 0.033333 1
98 1 32 0.000000 0.000000 0.000000 0.033333 1
99 1 32 0.000000 0.000000 0.000000 0.033333 1
100 1 32 0.000000 0.000000 0.000000 0.033333 1
101 1 32 0.000000 0.000000 0.000000 0.033333 1
102 1 32 0.000000 0.000000 0.000000 0.033333 1
103 1 32 0.000000 0.000000 0.000000 0.033333 1
104 1 32 0.000000 0.000000 0.000000 0.033333 1
105 1 32 0.000000 0.000000 0.000000 0.033333 1
106 1 32 0.000000 0.000000 0.000000 0.033333 1
107 1 32 0.000000 0.000000 0.000000 0.033333 1
108 1 32 0.000000 0.000000 0.000000 0.033333 1
109 1 32 0.000000 0.000000 0.000000 0.033333 1
110 1 32 0.000000 0.000000 0.000000 0.033333 1
111 1 32 0.000000 0.000000 0.000000 0.033333 1
112 1 32 0.000000 0.000000 0.000000 0.033333 1
113 1 32 0.000000 0.000000 0.000000 0.033333 1
114 1 32 0.000000 0.000000 0.000000 0.033333 1
115 1 32 0.000000 0.000000 0.000000 0.033333 1
116 1 32 0.000000 0.000000 0.000000 0.033333 1
117 1 32 0.000000 0.000000 0.000000 0.033333 1
118 1 32 0.000000 0.000000 0.000000 0.033333 1
119 1 32 0.000000 0.000000 0.000000 0.033333 1
120 1 32 0.000000 0.000000 0.000000 0.033333 1
121 1 32 0.000000 0.000000 0.000000 0.033333 1
122 1 32 0.000000 0.000000 0.000000 0.033333 1
123 1 32 0.000000 0.000000 0.000000 0.033333 1
124 1 32 0.000000 0.000000 0.000000 0.033333 1
125 1 32 0.000000 0.000000 0.000000 0.033333 1
126 1 32 0.000000 0.000000 0.000000 0.033333 1
127 1 32 0.000000 0.000000 0.000000 0.033333 1
128 1 32 0.000000 0.000000 0.000000 0.033333 1
1 2 32 -0.017014 -0.000023 -0.001351 0.033436 0
2 2 32 -0.017015 -0.000024 -0.001453 0.033438 0
3 2 32 -0.017012 -0.000025 -0.001559 0.033441 0
4 2 32 -0.017008 -0.000025 -0.001668 0.033444 0
5 2 32 -0.017002 -0.000025 -0.001781 0.033447 0
6 2 32 -0.016990 -0.000025 -0.001899 0.033449 0
7 2 32 -0.016974 -0.000026 -0.002020 0.033452 0
8 2 32 -0.016957 -0.000025 -0.002144 0.033455 0
9 2 32 -0.016933 -0.000025 -0.002274 0.033457 0
10 2 32 -0.016899 -0.000024 -0.002409 0.033459 0
11 2 32 -0.016863 -0.000024 -0.002546 0.033462 0
12 2 32 -0.016824 -0.000023 -0.002687 0.033464 0
13 2 32 -0.016766 -0.000021 -0.002836 0.033465 0
14 2 32 -0.016701 -0.000021 -0.002987 0.033466 0
15 2 32 -0.016639 -0.000020 -0.003139 0.033468 0
16 2 32 -0.016559 -0.000016 -0.003301 0.033468 0
17 2 32 -0.016450 -0.000015 -0.003467 0.033467 0
18 2 32 -0.016346 -0.000016 -0.003630 0.033468 0
19 2 32 -0.016242 -0.000009 -0.003802 0.033469 0
20 2 32 -0.016083 -0.000004 -0.003981 0.033466 0
21 2 32 -0.015904 -0.000006 -0.004154 0.033465 0
22 2 32 -0.015755 -0.000002 -0.004333 0.033467 0
23 2 32 -0.015551 0.000015 -0.004521 0.033464 0
24 2 32 -0.015264 0.000008 -0.004698 0.033459 0
25 2 32 -0.015012 0.000003 -0.004870 0.033461 0
26 2 32 -0.014777 0.000027 -0.005070 0.033460 0
27 2 32 -0.014384 0.000039 -0.005224 0.033450 0
28 2 32 -0.013936 0.000002 -0.005355 0.033448 0
29 2 32 -0.013617 0.000020 -0.005582 0.033452 0
30 2 32 -0.013178 0.000057 -0.005664 0.033439 0
31 2 32 -0.012560 0.000029 -0.005690 0.033425 0
32 2 32 -0.011948 -0.000016 -0.005861 0.033427 0
33 2 32 -0.011472 0.000066 -0.005920 0.033417 0
34 2 32 -0.010791 0.000023 -0.005673 0.033393 0
35 2 32 -0.009992 0.000003 -0.005665 0.033381 0
36 2 32 -0.009161 -0.000003 -0.005505 0.033369 0
37 2 32 -0.008505 0.000028 -0.005009 0.033343 0
38 2 32 -0.007704 0.000027 -0.004514 0.033316 0
39 2 32 -0.006738 0.000023 -0.003891 0.033294 0
40 2 32 -0.005889 -0.000027 -0.003094 0.033270 0
41 2 32 -0.005453 -0.000008 -0.001985 0.033240 0
42 2 32 -0.004978 0.000048 -0.000665 0.033210 0
43 2 32 -0.004390 -0.000054 0.000730 0.033179 0
44 2 32 -0.004195 -0.000079 0.002250 0.033154 0
45 2 32 -0.004318 -0.000127 0.003426 0.033138 0
46 2 32 -0.004480 -0.000085 0.004774 0.033111 0
47 2 32 -0.005076 -0.000030 0.005871 0.033092 0
48 2 32 -0.005592 -0.000063 0.006612 0.033087 0
49 2 32 -0.006197 -0.000054 0.007427 0.033074 0
50 2 32 -0.007154 -0.000019 0.008015 0.033059 0
51 2 32 -0.007971 -0.000009 0.008347 0.033059 0
52 2 32 -0.008700 -0.000010 0.008578 0.033057 0
53 2 32 -0.009582 -0.000014 0.008668 0.033051 0
54 2 32 -0.010376 0.000004 0.008525 0.033057 0
55 2 32 -0.011055 0.000002 0.008357 0.033059 0
56 2 32 -0.011738 -0.000003 0.008114 0.033058 0
57 2 32 -0.012320 0.000006 0.007769 0.033064 0
58 2 32 -0.012817 0.000001 0.007402 0.033072 0
59 2 32 -0.013275 -0.000015 0.007014 0.033077 0
60 2 32 -0.013678 -0.000008 0.006621 0.033082 0
61 2 32 -0.014011 -0.000013 0.006241 0.033091 0
62 2 32 -0.014292 -0.000023 0.005865 0.033101 0
63 2 32 -0.014556 -0.000030 0.005506 0.033109 0
64 2 32 -0.014788 -0.000031 0.005175 0.033117 0
65 2 32 -0.014975 -0.000034 0.004866 0.033128 0
66 2 32 -0.015147 -0.000039 0.004574 0.033138 0
67 2 32 -0.015310 -0.000042 0.004302 0.033148 0
68 2 32 -0.015449 -0.000040 0.004053 0.033158 0
69 2 32 -0.015572 -0.000041 0.003825 0.033169 0
70 2 32 -0.015687 -0.000042 0.003608 0.033179 0
71 2 32 -0.015795 -0.000042 0.003407 0.033188 0
72 2 32 -0.015892 -0.000041 0.003222 0.033198 0
73 2 32 -0.015980 -0.000042 0.003050 0.033208 0
74 2 32 -0.016067 -0.000042 0.002887 0.033217 0
75 2 32 -0.016149 -0.000043 0.002734 0.033226 0
76 2 32 -0.016226 -0.000044 0.002592 0.033236 0
77 2 32 -0.016300 -0.000045 0.002458 0.033245 0
78 2 32 -0.016374 -0.000047 0.002331 0.033255 0
79 2 32 -0.016444 -0.000048 0.002212 0.033264 0
80 2 32 -0.016510 -0.000048 0.002100 0.033274 0
81 2 32 -0.016574 -0.000049 0.001993 0.033284 0
82 2 32 -0.016635 -0.000049 0.001891 0.033293 0
83 2 32 -0.016692 -0.000048 0.001796 0.033302 0
84 2 32 -0.016744 -0.000047 0.001704 0.033311 0
85 2 32 -0.016793 -0.000046 0.001618 0.033320 0
86 2 32 -0.016836 -0.000043 0.001535 0.033328 0
87 2 32 -0.016875 -0.000041 0.001456 0.033336 0
88 2 32 -0.016909 -0.000038 0.001380 0.033343 0
89 2 32 -0.016938 -0.000035 0.001307 0.033350 0
90 2 32 -0.016962 -0.000032 0.001237 0.033356 0
91 2 32 -0.016982 -0.000029 0.001169 0.033362 0
92 2 32 -0.016999 -0.000026 0.001104 0.033367 0
93 2 32 -0.017011 -0.000023 0.001040 0.033372 0
94 2 32 -0.017020 -0.000020 0.000979 0.033376 0
95 2 32 -0.017027 -0.000017 0.000918 0.033380 0
96 2 32 -0.017031 -0.000015 0.000859 0.033384 0
97 2 32 -0.017032 -0.000013 0.000801 0.033387 0
98 2 32 -0.017032 -0.000011 0.000745 0.033390 0
99 2 32 -0.017031 -0.000009 0.000688 0.033392 0
100 2 32 -0.017028 -0.000008 0.000633 0.033394 0
101 2 32 -0.017025 -0.000007 0.000578 0.033397 0
102 2 32 -0.017021 -0.000006 0.000523 0.033399 0
103 2 32 -0.017016 -0.000005 0.000468 0.033400 0
104 2 32 -0.017011 -0.000005 0.000414 0.033402 0
105 2 32 -0.017006 -0.000004 0.000359 0.033404 0
106 2 32 -0.017001 -0.000004 0.000303 0.033405 0
107 2 32 -0.016996 -0.000004 0.000247 0.033407 0
108 2 32 -0.016991 -0.000004 0.000191 0.033408 0
109 2 32 -0.016986 -0.000004 0.000134 0.033410 0
110 2 32 -0.016981 -0.000004 0.000076 0.033411 0
111 2 32 -0.016977 -0.000005 0.000017 0.033412 0
112 2 32 -0.016974 -0.000005 -0.000043 0.033413 0
113 2 32 -0.016971 -0.000006 -0.000105 0.033414 0
114 2 32 -0.016969 -0.000007 -0.000167 0.033415 0
115 2 32 -0.016968 -0.000008 -0.000231 0.033416 0
116 2 32 -0.016967 -0.000009 -0.000296 0.033417 0
117 2 32 -0.016968 -0.000010 -0.000363 0.033417 0
118 2 32 -0.016970 -0.000011 -0.000432 0.033418 0
119 2 32 -0.016972 -0.000013 -0.000503 0.033419 0
120 2 32 -0.016976 -0.000014 -0.000575 0.033420 0
121 2 32 -0.016980 -0.000015 -0.000651 0.033421 0
122 2 32 -0.016985 -0.000016 -0.000728 0.033422 0
123 2 32 -0.016990 -0.000017 -0.000808 0.033424 0
124 2 32 -0.016995 -0.000018 -0.000891 0.033425 0
125 2 32 -0.017000 -0.000020 -0.000977 0.033427 0
126 2 32 -0.017005 -0.000021 -0.001065 0.033429 0
127 2 32 -0.017009 -0.000022 -0.001157 0.033431 0
128 2 32 -0.017012 -0.000023 -0.001252 0.033433 0
1 3 32 0.001159 -0.000038 -0.003325 0.033436 0
2 3 32 0.001164 -0.000039 -0.003574 0.033439 0
3 3 32 0.001176 -0.000041 -0.003832 0.033441 0
4 3 32 0.001192 -0.000042 -0.004099 0.033444 0
5 3 32 0.001213 -0.000043 -0.004375 0.033447 0
6 3 32 0.001245 -0.000044 -0.004662 0.033449 0
7 3 32 0.001286 -0.000045 -0.004959 0.033452 0
8 3 32 0.001333 -0.000047 -0.005265 0.033455 0
9 3 32 0.001394 -0.000048 -0.005582 0.033457 0
10 3 32 0.001473 -0.000048 -0.005911 0.033459 0
11 3 32 0.001562 -0.000050 -0.006250 0.033462 0
12 3 32 0.001662 -0.000052 -0.006599 0.033464 0
13 3 32 0.001791 -0.000051 -0.006961 0.033465 0
14 3 32 0.001942 -0.000052 -0.007334 0.033466 0
15 3 32 0.002098 -0.000055 -0.007717 0.033468 0
16 3 32 0.002287 -0.000055 -0.008112 0.033468 0
17 3 32 0.002525 -0.000053 -0.008520 0.033467 0
18 3 32 0.002775 -0.000056 -0.008937 0.033468 0
19 3 32 0.003040 -0.000058 -0.009365 0.033469 0
20 3 32 0.003387 -0.000056 -0.009802 0.033466 0
21 3 32 0.003784 -0.000052 -0.010249 0.033466 0
22 3 32 0.004175 -0.000060 -0.010703 0.033467 0
23 3 32 0.004643 -0.000055 -0.011168 0.033464 0
24 3 32 0.005256 -0.000056 -0.011618 0.033459 0
25 3 32 0.005852 -0.000059 -0.012087 0.033462 0
26 3 32 0.006470 -0.000062 -0.012569 0.033461 0
27 3 32 0.007304 -0.000058 -0.012987 0.033450 0
28 3 32 0.008290 -0.000087 -0.013385 0.033448 0
29 3 32 0.009135 -0.000067 -0.013879 0.033452 0
30 3 32 0.010140 -0.000079 -0.014204 0.033439 0
31 3 32 0.011523 -0.000099 -0.014412 0.033424 0
32 3 32 0.012893 -0.000128 -0.014757 0.033427 0
33 3 32 0.014160 -0.000070 -0.014933 0.033416 0
34 3 32 0.015842 -0.000121 -0.014681 0.033391 0
35 3 32 0.017627 -0.000127 -0.014720 0.033383 0
36 3 32 0.019453 -0.000148 -0.014333 0.033369 0
37 3 32 0.021330 -0.000113 -0.013489 0.033342 0
38 3 32 0.023365 -0.000047 -0.012604 0.033319 0
39 3 32 0.025507 -0.000156 -0.011222 0.033294 0
40 3 32 0.027732 -0.000198 -0.009465 0.033268 0
41 3 32 0.029417 -0.000145 -0.007157 0.033239 0
42 3 32 0.030907 -0.000200 -0.004499 0.033207 0
43 3 32 0.032366 -0.000340 -0.001631 0.033178 0
44 3 32 0.033317 -0.000474 0.001639 0.033152 0
45 3 32 0.033523 -0.000575 0.004447 0.033140 0
46 3 32 0.033433 -0.000421 0.007723 0.033112 0
47 3 32 0.032548 -0.000387 0.010690 0.033085 0
48 3 32 0.031517 -0.000432 0.012852 0.033085 0
49 3 32 0.030176 -0.000356 0.015142 0.033073 0
50 3 32 0.028292 -0.000295 0.016843 0.033056 0
51 3 32 0.026407 -0.000326 0.018112 0.033059 0
52 3 32 0.024456 -0.000238 0.019069 0.033056 0
53 3 32 0.022404 -0.000250 0.019624 0.033051 0
54 3 32 0.020432 -0.000256 0.019779 0.033057 0
55 3 32 0.018545 -0.000215 0.019736 0.033058 0
56 3 32 0.016788 -0.000219 0.019433 0.033058 0
57 3 32 0.015207 -0.000221 0.018890 0.033064 0
58 3 32 0.013791 -0.000199 0.018230 0.033072 0
59 3 32 0.012511 -0.000203 0.017505 0.033077 0
60 3 32 0.011373 -0.000192 0.016702 0.033083 0
61 3 32 0.010403 -0.000187 0.015869 0.033091 0
62 3 32 0.009564 -0.000184 0.015043 0.033101 0
63 3 32 0.008806 -0.000175 0.014239 0.033109 0
64 3 32 0.008136 -0.000169 0.013459 0.033118 0
65 3 32 0.007562 -0.000166 0.012715 0.033129 0
66 3 32 0.007053 -0.000157 0.012012 0.033139 0
67 3 32 0.006586 -0.000151 0.011350 0.033148 0
68 3 32 0.006168 -0.000143 0.010727 0.033158 0
69 3 32 0.005799 -0.000136 0.010143 0.033169 0
70 3 32 0.005461 -0.000129 0.009597 0.033179 0
71 3 32 0.005146 -0.000122 0.009084 0.033188 0
72 3 32 0.004860 -0.000116 0.008602 0.033198 0
73 3 32 0.004597 -0.000111 0.008151 0.033208 0
74 3 32 0.004349 -0.000107 0.007727 0.033217 0
75 3 32 0.004114 -0.000103 0.007326 0.033226 0
76 3 32 0.003893 -0.000101 0.006948 0.033236 0
77 3 32 0.003683 -0.000100 0.006592 0.033246 0
78 3 32 0.003480 -0.000098 0.006255 0.033255 0
79 3 32 0.003286 -0.000098 0.005935 0.033265 0
80 3 32 0.003100 -0.000097 0.005633 0.033274 0
81 3 32 0.002923 -0.000097 0.005346 0.033284 0
82 3 32 0.002753 -0.000096 0.005072 0.033293 0
83 3 32 0.002593 -0.000096 0.004812 0.033302 0
84 3 32 0.002443 -0.000094 0.004565 0.033311 0
85 3 32 0.002303 -0.000092 0.004329 0.033320 0
86 3 32 0.002173 -0.000090 0.004104 0.033328 0
87 3 32 0.002055 -0.000087 0.003888 0.033336 0
88 3 32 0.001946 -0.000084 0.003682 0.033343 0
89 3 32 0.001849 -0.000081 0.003483 0.033350 0
90 3 32 0.001762 -0.000077 0.003292 0.033356 0
91 3 32 0.001684 -0.000073 0.003108 0.033362 0
92 3 32 0.001616 -0.000069 0.002930 0.033367 0
93 3 32 0.001557 -0.000065 0.002757 0.033372 0
94 3 32 0.001506 -0.000061 0.002589 0.033376 0
95 3 32 0.001462 -0.000057 0.002426 0.033380 0
96 3 32 0.001425 -0.000054 0.002266 0.033383 0
97 3 32 0.001394 -0.000050 0.002110 0.033386 0
98 3 32 0.001367 -0.000047 0.001957 0.033389 0
99 3 32 0.001346 -0.000044 0.001807 0.033392 0
100 3 32 0.001328 -0.000041 0.001658 0.033394 0
101 3 32 0.001313 -0.000039 0.001512 0.033396 0
102 3 32 0.001302 -0.000036 0.001366 0.033398 0
103 3 32 0.001292 -0.000034 0.001222 0.033400 0
104 3 32 0.001284 -0.000032 0.001078 0.033402 0
105 3 32 0.001278 -0.000031 0.000934 0.033404 0
106 3 32 0.001273 -0.000029 0.000791 0.033405 0
107 3 32 0.001270 -0.000028 0.000646 0.033407 0
108 3 32 0.001266 -0.000027 0.000501 0.033408 0
109 3 32 0.001264 -0.000026 0.000354 0.033409 0
110 3 32 0.001262 -0.000026 0.000206 0.033411 0
111 3 32 0.001259 -0.000025 0.000056 0.033412 0
112 3 32 0.001257 -0.000025 -0.000096 0.033413 0
113 3 32 0.001254 -0.000025 -0.000250 0.033414 0
114 3 32 0.001251 -0.000025 -0.000407 0.033415 0
115 3 32 0.001246 -0.000026 -0.000567 0.033416 0
116 3 32 0.001241 -0.000026 -0.000730 0.033416 0
117 3 32 0.001235 -0.000027 -0.000897 0.033417 0
118 3 32 0.001228 -0.000027 -0.001068 0.033418 0
119 3 32 0.001221 -0.000028 -0.001243 0.033419 0
120 3 32 0.001212 -0.000029 -0.001424 0.033420 0
121 3 32 0.001203 -0.000029 -0.001609 0.033421 0
122 3 32 0.001194 -0.000030 -0.001800 0.033423 0
123 3 32 0.001185 -0.000031 -0.001997 0.033424 0
124 3 32 0.001177 -0.000032 -0.002200 0.033426 0
125 3 32 0.001169 -0.000033 -0.002410 0.033427 0
126 3 32 0.001163 -0.000034 -0.002627 0.033429 0
127 3 32 0.001159 -0.000035 -0.002852 0.033431 0
128 3 32 0.001158 -0.000037 -0.003084 0.033434 0
1 4 32 0.013265 -0.000051 -0.004170 0.033436 0
2 4 32 0.013278 -0.000053 -0.004483 0.033439 0
3 4 32 0.013299 -0.000055 -0.004807 0.033442 0
4 4 32 0.013324 -0.000056 -0.005142 0.033444 0
5 4 32 0.013356 -0.000059 -0.005489 0.033447 0
6 4 32 0.013401 -0.000061 -0.005850 0.033450 0
7 4 32 0.013457 -0.000062 -0.006223 0.033452 0
8 4 32 0.013518 -0.000065 -0.006607 0.033455 0
9 4 32 0.013597 -0.000068 -0.007008 0.033457 0
10 4 32 0.013696 -0.000070 -0.007424 0.033459 0
11 4 32 0.013805 -0.000072 -0.007851 0.033462 0
12 4 32 0.013927 -0.000078 -0.008293 0.033464 0
13 4 32 0.014085 -0.000081 -0.008755 0.033465 0
14 4 32 0.014266 -0.000081 -0.009230 0.033466 0
15 4 32 0.014450 -0.000088 -0.009716 0.033468 0
16 4 32 0.014677 -0.000095 -0.010226 0.033468 0
17 4 32 0.014960 -0.000095 -0.010753 0.033468 0
18 4 32 0.015248 -0.000097 -0.011286 0.033469 0
19 4 32 0.015559 -0.000109 -0.011838 0.033469 0
20 4 32 0.015971 -0.000112 -0.012418 0.033467 0
21 4 32 0.016428 -0.000108 -0.012998 0.033466 0
22 4 32 0.016870 -0.000123 -0.013588 0.033468 0
23 4 32 0.017418 -0.000135 -0.014215 0.033464 0
24 4 32 0.018125 -0.000128 -0.014825 0.033459 0
25 4 32 0.018800 -0.000133 -0.015439 0.033462 0
26 4 32 0.019505 -0.000164 -0.016096 0.033461 0
27 4 32 0.020476 -0.000165 -0.016701 0.033450 0
28 4 32 0.021561 -0.000174 -0.017270 0.033449 0
29 4 32 0.022533 -0.000181 -0.017962 0.033452 0
30 4 32 0.023735 -0.000209 -0.018463 0.033438 0
31 4 32 0.025273 -0.000247 -0.018851 0.033424 0
32 4 32 0.026832 -0.000245 -0.019451 0.033428 0
33 4 32 0.028304 -0.000252 -0.019846 0.033415 0
34 4 32 0.030297 -0.000269 -0.019667 0.033389 0
35 4 32 0.032390 -0.000299 -0.019993 0.033382 0
36 4 32 0.034637 -0.000327 -0.019895 0.033369 0
37 4 32 0.036841 -0.000304 -0.019122 0.033341 0
38 4 32 0.039362 -0.000235 -0.018348 0.033315 0
39 4 32 0.042144 -0.000394 -0.017250 0.033293 0
40 4 32 0.044954 -0.000436 -0.015737 0.033269 0
41 4 32 0.047313 -0.000368 -0.013476 0.033239 0
42 4 32 0.049580 -0.000439 -0.010819 0.033208 0
43 4 32 0.051844 -0.000449 -0.007900 0.033179 0
44 4 32 0.053634 -0.000565 -0.004417 0.033153 0
45 4 32 0.054431 -0.000693 -0.001175 0.033139 0
46 4 32 0.055019 -0.000519 0.002945 0.033110 0
47 4 32 0.054764 -0.000479 0.006778 0.033086 0
48 4 32 0.054157 -0.000549 0.009770 0.033087 0
49 4 32 0.053141 -0.000422 0.013283 0.033071 0
50 4 32 0.051388 -0.000381 0.015931 0.033058 0
51 4 32 0.049434 -0.000455 0.018264 0.033060 0
52 4 32 0.047296 -0.000324 0.020188 0.033056 0
53 4 32 0.044942 -0.000348 0.021612 0.033052 0
54 4 32 0.042496 -0.000414 0.022559 0.033055 0
55 4 32 0.040120 -0.000376 0.023140 0.033059 0
56 4 32 0.037809 -0.000396 0.023375 0.033060 0
57 4 32 0.035604 -0.000438 0.023262 0.033064 0
58 4 32 0.033596 -0.000423 0.022910 0.033073 0
59 4 32 0.031722 -0.000423 0.022385 0.033078 0
60 4 32 0.030003 -0.000427 0.021696 0.033083 0
61 4 32 0.028507 -0.000420 0.020907 0.033092 0
62 4 32 0.027172 -0.000406 0.020067 0.033102 0
63 4 32 0.025946 -0.000385 0.019191 0.033110 0
64 4 32 0.024862 -0.000366 0.018301 0.033119 0
65 4 32 0.023916 -0.000348 0.017431 0.033129 0
66 4 32 0.023069 -0.000325 0.016580 0.033139 0
67 4 32 0.022294 -0.000301 0.015752 0.033149 0
68 4 32 0.021601 -0.000280 0.014959 0.033159 0
69 4 32 0.020988 -0.000260 0.014207 0.033169 0
70 4 32 0.020428 -0.000240 0.013487 0.033179 0
71 4 32 0.019910 -0.000221 0.012802 0.033189 0
72 4 32 0.019443 -0.000204 0.012153 0.033198 0
73 4 32 0.019016 -0.000190 0.011539 0.033208 0
74 4 32 0.018617 -0.000177 0.010955 0.033217 0
75 4 32 0.018244 -0.000165 0.010400 0.033227 0
76 4 32 0.017899 -0.000156 0.009874 0.033236 0
77 4 32 0.017574 -0.000148 0.009375 0.033246 0
78 4 32 0.017265 -0.000141 0.008899 0.033255 0
79 4 32 0.016973 -0.000136 0.008447 0.033265 0
80 4 32 0.016697 -0.000131 0.008017 0.033274 0
81 4 32 0.016435 -0.000127 0.007608 0.033284 0
82 4 32 0.016187 -0.000124 0.007217 0.033293 0
83 4 32 0.015952 -0.000120 0.006844 0.033302 0
84 4 32 0.015732 -0.000117 0.006489 0.033311 0
85 4 32 0.015524 -0.000113 0.006149 0.033320 0
86 4 32 0.015330 -0.000110 0.005824 0.033328 0
87 4 32 0.015150 -0.000106 0.005513 0.033335 0
88 4 32 0.014983 -0.000102 0.005214 0.033343 0
89 4 32 0.014829 -0.000099 0.004927 0.033349 0
90 4 32 0.014687 -0.000095 0.004651 0.033356 0
91 4 32 0.014557 -0.000090 0.004386 0.033361 0
92 4 32 0.014438 -0.000086 0.004129 0.033367 0
93 4 32 0.014329 -0.000083 0.003881 0.033371 0
94 4 32 0.014231 -0.000079 0.003640 0.033376 0
95 4 32 0.014141 -0.000075 0.003407 0.033380 0
96 4 32 0.014061 -0.000072 0.003179 0.033383 0
97 4 32 0.013988 -0.000068 0.002958 0.033386 0
98 4 32 0.013922 -0.000065 0.002742 0.033389 0
99 4 32 0.013862 -0.000062 0.002530 0.033392 0
100 4 32 0.013808 -0.000060 0.002322 0.033394 0
101 4 32 0.013759 -0.000057 0.002117 0.033396 0
102 4 32 0.013715 -0.000055 0.001916 0.033398 0
103 4 32 0.013674 -0.000053 0.001716 0.033400 0
104 4 32 0.013638 -0.000050 0.001519 0.033402 0
105 4 32 0.013604 -0.000049 0.001322 0.033404 0
106 4 32 0.013574 -0.000047 0.001127 0.033405 0
107 4 32 0.013545 -0.000045 0.000932 0.033407 0
108 4 32 0.013520 -0.000044 0.000737 0.033408 0
109 4 32 0.013496 -0.000043 0.000541 0.033409 0
110 4 32 0.013474 -0.000042 0.000344 0.033411 0
111 4 32 0.013453 -0.000041 0.000146 0.033412 0
112 4 32 0.013434 -0.000040 -0.000053 0.033413 0
113 4 32 0.013416 -0.000040 -0.000256 0.033414 0
114 4 32 0.013398 -0.000040 -0.000460 0.033415 0
115 4 32 0.013382 -0.000040 -0.000668 0.033416 0
116 4 32 0.013366 -0.000040 -0.000879 0.033416 0
117 4 32 0.013351 -0.000040 -0.001094 0.033417 0
118 4 32 0.013336 -0.000041 -0.001314 0.033418 0
119 4 32 0.013321 -0.000041 -0.001539 0.033419 0
120 4 32 0.013308 -0.000042 -0.001769 0.033420 0
121 4 32 0.013295 -0.000042 -0.002005 0.033422 0
122 4 32 0.013283 -0.000043 -0.002248 0.033423 0
123 4 32 0.013273 -0.000044 -0.002497 0.033424 0
124 4 32 0.013265 -0.000045 -0.002755 0.033426 0
125 4 32 0.013258 -0.000046 -0.003020 0.033428 0
126 4 32 0.013254 -0.000047 -0.003293 0.033430 0
127 4 32 0.013255 -0.000049 -0.003576 0.033432 0
128 4 32 0.013259 -0.000050 -0.003868 0.033434 0
1 5 32 0.020971 -0.000066 -0.004454 0.033437 0
2 5 32 0.020981 -0.000069 -0.004795 0.033439 0
3 5 32 0.020999 -0.000071 -0.005148 0.033442 0
4 5 32 0.021022 -0.000073 -0.005513 0.033445 0
5 5 32 0.021052 -0.000076 -0.005889 0.033447 0
6 5 32 0.021095 -0.000079 -0.006282 0.033450 0
7 5 32 0.021149 -0.000082 -0.006689 0.033453 0
8 5 32 0.021209 -0.000086 -0.007107 0.033455 0
9 5 32 0.021286 -0.000090 -0.007542 0.033458 0
10 5 32 0.021384 -0.000094 -0.007997 0.033460 0
11 5 32 0.021492 -0.000098 -0.008464 0.033462 0
12 5 32 0.021613 -0.000103 -0.008945 0.033464 0
13 5 32 0.021769 -0.000109 -0.009452 0.033465 0
14 5 32 0.021950 -0.000113 -0.009975 0.033466 0
15 5 32 0.022135 -0.000120 -0.010506 0.033468 0
16 5 32 0.022359 -0.000128 -0.011064 0.033468 0
17 5 32 0.022641 -0.000133 -0.011650 0.033468 0
18 5 32 0.022931 -0.000139 -0.012239 0.033469 0
19 5 32 0.023239 -0.000150 -0.012846 0.033470 0
20 5 32 0.023649 -0.000155 -0.013493 0.033467 0
21 5 32 0.024110 -0.000161 -0.014148 0.033466 0
22 5 32 0.024552 -0.000173 -0.014801 0.033468 0
23 5 32 0.025090 -0.000182 -0.015500 0.033465 0
24 5 32 0.025800 -0.000187 -0.016208 0.033460 0
25 5 32 0.026480 -0.000207 -0.016909 0.033462 0
26 5 32 0.027187 -0.000219 -0.017642 0.033462 0
27 5 32 0.028150 -0.000219 -0.018365 0.033451 0
28 5 32 0.029226 -0.000249 -0.019055 0.033449 0
29 5 32 0.030198 -0.000279 -0.019855 0.033452 0
30 5 32 0.031467 -0.000251 -0.020469 0.033438 0
31 5 32 0.032971 -0.000303 -0.021037 0.033425 0
32 5 32 0.034498 -0.000345 -0.021792 0.033428 0
33 5 32 0.036047 -0.000310 -0.022354 0.033415 0
34 5 32 0.038018 -0.000325 -0.022380 0.033390 0
35 5 32 0.040144 -0.000379 -0.022882 0.033380 0
36 5 32 0.042478 -0.000387 -0.023065 0.033369 0
37 5 32 0.044693 -0.000339 -0.022632 0.033343 0
38 5 32 0.047307 -0.000293 -0.022032 0.033314 0
39 5 32 0.050198 -0.000313 -0.021216 0.033293 0
40 5 32 0.053131 -0.000406 -0.020085 0.033269 0
41 5 32 0.055682 -0.000317 -0.018142 0.033239 0
42 5 32 0.058235 -0.000287 -0.015723 0.033209 0
43 5 32 0.060859 -0.000346 -0.013010 0.033179 0
44 5 32 0.063150 -0.000312 -0.009731 0.033155 0
45 5 32 0.064541 -0.000465 -0.006658 0.033142 0
46 5 32 0.065778 -0.000377 -0.002386 0.033107 0
47 5 32 0.066085 -0.000268 0.001619 0.033087 0
48 5 32 0.066113 -0.000400 0.005015 0.033088 0
49 5 32 0.065759 -0.000318 0.009142 0.033067 0
50 5 32 0.064541 -0.000253 0.012184 0.033061 0
51 5 32 0.062977 -0.000335 0.015340 0.033060 0
52 5 32 0.061163 -0.000294 0.017974 0.033053 0
53 5 32 0.059039 -0.000300 0.020047 0.033052 0
54 5 32 0.056673 -0.000367 0.021702 0.033055 0
55 5 32 0.054292 -0.000381 0.022944 0.033059 0
56 5 32 0.051867 -0.000409 0.023756 0.033060 0
57 5 32 0.049454 -0.000458 0.024167 0.033065 0
58 5 32 0.047171 -0.000488 0.024269 0.033073 0
59 5 32 0.044980 -0.000502 0.024114 0.033078 0
60 5 32 0.042921 -0.000515 0.023734 0.033084 0
61 5 32 0.041057 -0.000522 0.023177 0.033093 0
62 5 32 0.039350 -0.000515 0.022505 0.033103 0
63 5 32 0.037765 -0.000501 0.021749 0.033110 0
64 5 32 0.036334 -0.000480 0.020930 0.033119 0
65 5 32 0.035066 -0.000457 0.020088 0.033130 0
66 5 32 0.033917 -0.000434 0.019235 0.033140 0
67 5 32 0.032862 -0.000405 0.018382 0.033149 0
68 5 32 0.031917 -0.000374 0.017543 0.033159 0
69 5 32 0.031074 -0.000347 0.016730 0.033170 0
70 5 32 0.030305 -0.000321 0.015940 0.033180 0
71 5 32 0.029600 -0.000295 0.015176 0.033189 0
72 5 32 0.028962 -0.000271 0.014443 0.033199 0
73 5 32 0.028382 -0.000250 0.013743 0.033208 0
74 5 32 0.027847 -0.000232 0.013070 0.033218 0
75 5 32 0.027350 -0.000214 0.012427 0.033227 0
76 5 32 0.026892 -0.000199 0.011813 0.033237 0
77 5 32 0.026467 -0.000187 0.011227 0.033246 0
78 5 32 0.026068 -0.000176 0.010666 0.033256 0
79 5 32 0.025694 -0.000166 0.010130 0.033265 0
80 5 32 0.025345 -0.000158 0.009620 0.033275 0
81 5 32 0.025018 -0.000151 0.009132 0.033284 0
82 5 32 0.024709 -0.000145 0.008665 0.033293 0
83 5 32 0.024421 -0.000139 0.008219 0.033302 0
84 5 32 0.024151 -0.000133 0.007793 0.033311 0
85 5 32 0.023899 -0.000128 0.007385 0.033320 0
86 5 32 0.023664 -0.000123 0.006994 0.033328 0
87 5 32 0.023447 -0.000117 0.006620 0.033335 0
88 5 32 0.023245 -0.000112 0.006261 0.033343 0
89 5 32 0.023059 -0.000107 0.005916 0.033349 0
90 5 32 0.022887 -0.000102 0.005584 0.033356 0
91 5 32 0.022729 -0.000097 0.005265 0.033361 0
92 5 32 0.022584 -0.000092 0.004957 0.033367 0
93 5 32 0.022451 -0.000087 0.004660 0.033371 0
94 5 32 0.022329 -0.000083 0.004372 0.033376 0
95 5 32 0.022218 -0.000079 0.004094 0.033379 0
96 5 32 0.022116 -0.000075 0.003823 0.033383 0
97 5 32 0.022023 -0.000072 0.003560 0.033386 0
98 5 32 0.021938 -0.000069 0.003304 0.033389 0
99 5 32 0.021860 -0.000066 0.003054 0.033392 0
100 5 32 0.021789 -0.000063 0.002810 0.033394 0
101 5 32 0.021723 -0.000061 0.002570 0.033396 0
102 5 32 0.021662 -0.000059 0.002334 0.033398 0
103 5 32 0.021606 -0.000056 0.002102 0.033400 0
104 5 32 0.021555 -0.000055 0.001873 0.033402 0
105 5 32 0.021507 -0.000053 0.001646 0.033404 0
106 5 32 0.021463 -0.000051 0.001421 0.033405 0
107 5 32 0.021421 -0.000050 0.001198 0.033407 0
108 5 32 0.021383 -0.000049 0.000974 0.033408 0
109 5 32 0.021347 -0.000048 0.000752 0.033409 0
110 5 32 0.021313 -0.000047 0.000528 0.033410 0
111 5 32 0.021282 -0.000047 0.000305 0.033412 0
112 5 32 0.021252 -0.000046 0.000079 0.033413 0
113 5 32 0.021224 -0.000046 -0.000148 0.033414 0
114 5 32 0.021197 -0.000047 -0.000377 0.033415 0
115 5 32 0.021171 -0.000047 -0.000609 0.033416 0
116 5 32 0.021146 -0.000048 -0.000844 0.033416 0
117 5 32 0.021123 -0.000048 -0.001083 0.033417 0
118 5 32 0.021100 -0.000049 -0.001326 0.033418 0